MAPUNITS
'METRES  ' /

MAPAXES
 200.000  200.003
 200.000 5000.000
3800.001 5000.000 /

GRIDUNIT
'METRES  ' '        ' /

SPECGRID
  36  48  12   1  F  /

COORD
        0.000        -0.000    2000.000         0.000         0.000    2080.000
      100.000        -0.000    2000.000       100.000         0.000    2080.000
      200.000         0.000    2000.000       200.000         0.000    2080.000
      300.000         0.000    2000.000       300.000         0.000    2080.000
      400.000        -0.000    2000.000       400.000         0.000    2080.000
      500.000         0.000    2000.000       500.001         0.000    2080.000
      600.000         0.000    2000.000       600.000         0.000    2080.000
      700.001         0.000    2000.000       700.001         0.000    2080.000
      800.001         0.000    2000.000       800.001         0.000    2080.000
      900.001         0.000    2000.000       900.001         0.000    2080.000
     1000.001         0.000    2000.000      1000.001         0.000    2080.000
     1100.001         0.001    2000.000      1100.001         0.000    2080.000
     1200.001         0.001    2000.000      1200.001         0.000    2080.000
     1300.001         0.000    2000.000      1300.001         0.001    2080.000
     1400.001         0.001    2000.000      1400.001         0.000    2080.000
     1500.001         0.001    2000.000      1500.001         0.000    2080.000
     1600.001        -0.000    2000.000      1600.001         0.000    2080.000
     1700.001         0.001    2000.000      1700.001         0.000    2080.000
     1800.001         0.001    2000.000      1800.001         0.000    2080.000
     1900.001         0.000    2000.000      1900.001         0.000    2080.000
     2000.001         0.000    2000.000      2000.001         0.000    2080.000
     2100.001         0.000    2000.000      2100.001         0.000    2080.000
     2200.001         0.000    2000.000      2200.001         0.000    2080.000
     2300.001         0.001    2000.000      2300.001        -0.000    2080.000
     2400.001         0.000    2000.000      2400.001         0.000    2080.000
     2500.001         0.000    2000.000      2500.001         0.000    2080.000
     2600.001         0.000    2000.000      2600.001         0.000    2080.000
     2700.001         0.000    2000.000      2700.001         0.000    2080.000
     2800.001         0.000    2000.000      2800.001         0.000    2080.000
     2900.001        -0.000    2000.000      2900.001         0.000    2080.000
     3000.001         0.000    2000.000      3000.001         0.000    2080.000
     3100.001         0.000    2000.000      3100.001         0.001    2080.000
     3200.001         0.000    2000.000      3200.001         0.000    2080.000
     3300.001         0.000    2000.000      3300.001         0.000    2080.000
     3400.001        -0.000    2000.000      3400.001         0.000    2080.000
     3500.001         0.000    2000.000      3500.001         0.000    2080.000
     3600.001         0.001    2000.000      3600.001         0.000    2080.000
        0.000       100.000    2000.000         0.000       100.000    2080.000
      100.000       100.000    2000.000       100.000       100.000    2080.000
      200.000       100.000    2000.000       200.000       100.000    2080.000
      300.000       100.000    2000.000       300.000       100.000    2080.000
      400.000       100.000    2000.000       400.000       100.000    2080.000
      500.000       100.001    2000.000       500.001       100.000    2080.000
      600.000       100.000    2000.000       600.000       100.000    2080.000
      700.001       100.000    2000.000       700.001       100.000    2080.000
      800.001       100.000    2000.000       800.001       100.000    2080.000
      900.001       100.001    2000.000       900.001       100.000    2080.000
     1000.001       100.001    2000.000      1000.001       100.000    2080.000
     1100.001       100.000    2000.000      1100.001       100.000    2080.000
     1200.001       100.000    2000.000      1200.001       100.000    2080.000
     1300.001       100.000    2000.000      1300.001       100.000    2080.000
     1400.001       100.000    2000.000      1400.001       100.000    2080.000
     1500.001       100.000    2000.000      1500.001       100.000    2080.000
     1600.001       100.000    2000.000      1600.001       100.000    2080.000
     1700.001       100.000    2000.000      1700.001       100.000    2080.000
     1800.001       100.000    2000.000      1800.001       100.000    2080.000
     1900.001       100.000    2000.000      1900.001       100.000    2080.000
     2000.001       100.000    2000.000      2000.001       100.000    2080.000
     2100.001       100.000    2000.000      2100.001       100.000    2080.000
     2200.001       100.000    2000.000      2200.001       100.000    2080.000
     2300.001       100.000    2000.000      2300.001       100.000    2080.000
     2400.001       100.000    2000.000      2400.001       100.000    2080.000
     2500.001       100.000    2000.000      2500.001       100.000    2080.000
     2600.001       100.000    2000.000      2600.001       100.000    2080.000
     2700.001       100.000    2000.000      2700.001       100.000    2080.000
     2800.001       100.000    2000.000      2800.001       100.000    2080.000
     2900.001       100.000    2000.000      2900.001       100.000    2080.000
     3000.001       100.000    2000.000      3000.001       100.000    2080.000
     3100.001       100.000    2000.000      3100.001       100.000    2080.000
     3200.001       100.000    2000.000      3200.001       100.000    2080.000
     3300.001       100.000    2000.000      3300.001       100.000    2080.000
     3400.001       100.000    2000.000      3400.001       100.000    2080.000
     3500.001       100.000    2000.000      3500.001       100.000    2080.000
     3600.001       100.000    2000.000      3600.001       100.000    2080.000
        0.000       200.000    2000.000         0.000       200.000    2080.000
      100.000       200.000    2000.000       100.000       200.000    2080.000
      200.000       200.000    2000.000       200.000       200.000    2080.000
      300.000       200.000    2000.000       300.000       200.000    2080.000
      400.000       200.000    2000.000       400.000       200.000    2080.000
      500.001       200.000    2000.000       500.001       200.000    2080.000
      600.000       200.000    2000.000       600.000       200.000    2080.000
      700.001       200.000    2000.000       700.001       200.000    2080.000
      800.001       200.000    2000.000       800.001       200.000    2080.000
      900.001       200.000    2000.000       900.001       200.000    2080.000
     1000.001       200.000    2000.000      1000.001       200.000    2080.000
     1100.001       200.000    2000.000      1100.001       200.000    2080.000
     1200.001       200.000    2000.000      1200.001       200.000    2080.000
     1300.001       200.000    2000.000      1300.001       200.000    2080.000
     1400.001       200.000    2000.000      1400.001       200.000    2080.000
     1500.001       200.000    2000.000      1500.001       200.000    2080.000
     1600.001       200.000    2000.000      1600.001       200.000    2080.000
     1700.001       200.000    2000.000      1700.001       200.000    2080.000
     1800.001       200.000    2000.000      1800.001       200.000    2080.000
     1900.001       200.000    2000.000      1900.001       200.000    2080.000
     2000.001       200.000    2000.000      2000.001       200.000    2080.000
     2100.002       200.000    2000.000      2100.001       200.000    2080.000
     2200.001       200.000    2000.000      2200.001       200.000    2080.000
     2300.001       200.000    2000.000      2300.001       200.000    2080.000
     2400.001       200.000    2000.000      2400.001       200.000    2080.000
     2500.001       200.000    2000.000      2500.001       200.000    2080.000
     2600.001       200.000    2000.000      2600.001       200.000    2080.000
     2700.001       200.000    2000.000      2700.001       200.000    2080.000
     2800.001       200.000    2000.000      2800.001       200.000    2080.000
     2900.001       200.000    2000.000      2900.001       200.000    2080.000
     3000.001       200.000    2000.000      3000.001       200.000    2080.000
     3100.001       200.000    2000.000      3100.001       200.000    2080.000
     3200.001       200.000    2000.000      3200.001       200.000    2080.000
     3300.001       200.000    2000.000      3300.001       200.000    2080.000
     3400.001       200.000    2000.000      3400.001       200.000    2080.000
     3500.001       200.000    2000.000      3500.001       200.000    2080.000
     3600.001       200.000    2000.000      3600.001       200.000    2080.000
        0.000       300.000    2000.000         0.000       300.000    2080.000
      100.000       300.000    2000.000       100.000       300.000    2080.000
      200.000       300.000    2000.000       200.000       300.000    2080.000
      300.000       300.000    2000.000       300.000       300.000    2080.000
      400.001       300.000    2000.000       400.000       300.000    2080.000
      500.001       300.000    2000.000       500.001       300.000    2080.000
      600.000       300.000    2000.000       600.000       300.000    2080.000
      700.001       300.000    2000.000       700.001       300.000    2080.000
      800.001       300.000    2000.000       800.001       300.000    2080.000
      900.001       300.000    2000.000       900.001       300.000    2080.000
     1000.001       300.000    2000.000      1000.001       300.000    2080.000
     1100.001       300.000    2000.000      1100.001       300.000    2080.000
     1200.001       300.000    2000.000      1200.001       300.000    2080.000
     1300.001       300.000    2000.000      1300.001       300.000    2080.000
     1400.001       300.000    2000.000      1400.001       300.000    2080.000
     1500.001       300.000    2000.000      1500.001       300.000    2080.000
     1600.001       300.000    2000.000      1600.001       300.000    2080.000
     1700.001       300.000    2000.000      1700.001       300.000    2080.000
     1800.001       300.000    2000.000      1800.001       300.000    2080.000
     1900.001       300.000    2000.000      1900.001       300.000    2080.000
     2000.001       300.000    2000.000      2000.001       300.000    2080.000
     2100.001       300.000    2000.000      2100.001       300.000    2080.000
     2200.001       300.000    2000.000      2200.001       300.000    2080.000
     2300.001       300.000    2000.000      2300.001       300.000    2080.000
     2400.001       300.000    2000.000      2400.001       300.000    2080.000
     2500.001       300.000    2000.000      2500.001       300.000    2080.000
     2600.001       300.000    2000.000      2600.001       300.000    2080.000
     2700.001       300.000    2000.000      2700.001       300.000    2080.000
     2800.001       300.000    2000.000      2800.001       300.000    2080.000
     2900.001       300.000    2000.000      2900.001       300.000    2080.000
     3000.001       300.000    2000.000      3000.001       300.000    2080.000
     3100.001       300.000    2000.000      3100.001       300.000    2080.000
     3200.001       300.000    2000.000      3200.001       300.000    2080.000
     3300.001       300.000    2000.000      3300.001       300.000    2080.000
     3400.001       300.000    2000.000      3400.001       300.000    2080.000
     3500.001       300.000    2000.000      3500.001       300.000    2080.000
     3600.001       300.000    2000.000      3600.001       300.000    2080.000
        0.000       400.000    2000.000         0.000       400.000    2080.000
      100.000       400.000    2000.000       100.000       400.000    2080.000
      200.000       400.000    2000.000       200.000       400.000    2080.000
      300.000       400.000    2000.000       300.000       400.000    2080.000
      400.000       400.000    2000.000       400.000       400.000    2080.000
      500.000       400.000    2000.000       500.001       400.000    2080.000
      600.000       400.000    2000.000       600.000       400.000    2080.000
      700.001       400.000    2000.000       700.001       400.000    2080.000
      800.001       400.000    2000.000       800.001       400.000    2080.000
      900.001       400.000    2000.000       900.001       400.000    2080.000
     1000.001       400.000    2000.000      1000.001       400.000    2080.000
     1100.001       400.000    2000.000      1100.001       400.000    2080.000
     1200.001       400.000    2000.000      1200.001       400.000    2080.000
     1300.001       400.000    2000.000      1300.001       400.000    2080.000
     1400.001       400.000    2000.000      1400.001       400.000    2080.000
     1500.001       400.000    2000.000      1500.001       400.000    2080.000
     1600.001       400.000    2000.000      1600.001       400.000    2080.000
     1700.001       400.000    2000.000      1700.001       400.000    2080.000
     1800.001       400.000    2000.000      1800.001       400.000    2080.000
     1900.001       400.000    2000.000      1900.001       400.000    2080.000
     2000.001       400.001    2000.000      2000.001       400.000    2080.000
     2100.001       400.000    2000.000      2100.001       400.000    2080.000
     2200.001       400.000    2000.000      2200.001       400.000    2080.000
     2300.001       400.000    2000.000      2300.001       400.000    2080.000
     2400.001       400.000    2000.000      2400.001       400.000    2080.000
     2500.001       400.000    2000.000      2500.001       400.000    2080.000
     2600.001       400.000    2000.000      2600.001       400.000    2080.000
     2700.001       400.000    2000.000      2700.001       400.000    2080.000
     2800.001       400.000    2000.000      2800.001       400.000    2080.000
     2900.001       400.000    2000.000      2900.001       400.000    2080.000
     3000.001       400.000    2000.000      3000.001       400.000    2080.000
     3100.001       400.000    2000.000      3100.001       400.000    2080.000
     3200.001       400.000    2000.000      3200.001       400.000    2080.000
     3300.001       400.000    2000.000      3300.001       400.000    2080.000
     3400.001       400.000    2000.000      3400.001       400.000    2080.000
     3500.001       400.000    2000.000      3500.001       400.000    2080.000
     3600.001       400.000    2000.000      3600.001       400.000    2080.000
        0.000       500.000    2000.000         0.000       500.000    2080.000
      100.000       500.000    2000.000       100.000       500.000    2080.000
      200.000       500.000    2000.000       200.000       500.000    2080.000
      300.000       500.001    2000.000       300.000       500.000    2080.000
      400.000       500.000    2000.000       400.000       500.000    2080.000
      500.001       500.001    2000.000       500.001       500.000    2080.000
      600.000       500.001    2000.000       600.000       500.000    2080.000
      700.001       500.000    2000.000       700.001       500.000    2080.000
      800.001       500.000    2000.000       800.001       500.000    2080.000
      900.001       500.000    2000.000       900.001       500.001    2080.000
     1000.001       500.000    2000.000      1000.001       500.000    2080.000
     1100.001       500.000    2000.000      1100.001       500.000    2080.000
     1200.001       500.000    2000.000      1200.001       500.000    2080.000
     1300.001       500.000    2000.000      1300.001       500.000    2080.000
     1400.001       500.000    2000.000      1400.001       500.000    2080.000
     1500.001       500.000    2000.000      1500.001       500.000    2080.000
     1600.001       500.000    2000.000      1600.001       500.000    2080.000
     1700.001       500.000    2000.000      1700.001       500.000    2080.000
     1800.001       500.000    2000.000      1800.001       500.000    2080.000
     1900.001       500.001    2000.000      1900.001       500.000    2080.000
     2000.001       500.000    2000.000      2000.001       500.000    2080.000
     2100.002       500.000    2000.000      2100.001       500.000    2080.000
     2200.001       500.000    2000.000      2200.001       500.000    2080.000
     2300.001       500.000    2000.000      2300.001       500.000    2080.000
     2400.001       500.000    2000.000      2400.001       500.000    2080.000
     2500.001       500.000    2000.000      2500.001       500.000    2080.000
     2600.001       500.000    2000.000      2600.001       500.000    2080.000
     2700.001       500.000    2000.000      2700.001       500.000    2080.000
     2800.001       500.000    2000.000      2800.001       500.000    2080.000
     2900.001       500.001    2000.000      2900.001       500.000    2080.000
     3000.001       500.000    2000.000      3000.001       500.000    2080.000
     3100.001       500.001    2000.000      3100.001       500.000    2080.000
     3200.001       500.000    2000.000      3200.001       500.000    2080.000
     3300.001       500.000    2000.000      3300.001       500.000    2080.000
     3400.001       500.000    2000.000      3400.001       500.000    2080.000
     3500.001       500.000    2000.000      3500.001       500.000    2080.000
     3600.001       500.001    2000.000      3600.001       500.000    2080.000
        0.000       600.000    2000.000         0.000       600.000    2080.000
      100.000       600.000    2000.000       100.000       600.000    2080.000
      200.000       600.000    2000.000       200.000       600.000    2080.000
      300.000       600.000    2000.000       300.000       600.000    2080.000
      400.000       600.000    2000.000       400.000       600.000    2080.000
      500.001       600.000    2000.000       500.001       600.000    2080.000
      600.000       600.001    2000.000       600.000       600.000    2080.000
      700.001       600.000    2000.000       700.001       600.000    2080.000
      800.001       600.000    2000.000       800.001       600.000    2080.000
      900.001       600.000    2000.000       900.001       600.000    2080.000
     1000.001       600.000    2000.000      1000.001       600.000    2080.000
     1100.001       600.000    2000.000      1100.001       600.000    2080.000
     1200.001       600.000    2000.000      1200.001       600.000    2080.000
     1300.001       600.000    2000.000      1300.001       600.000    2080.000
     1400.001       600.000    2000.000      1400.001       600.000    2080.000
     1500.001       600.000    2000.000      1500.001       600.000    2080.000
     1600.001       600.001    2000.000      1600.001       600.000    2080.000
     1700.001       600.000    2000.000      1700.001       600.000    2080.000
     1800.001       600.000    2000.000      1800.001       600.000    2080.000
     1900.001       600.000    2000.000      1900.001       600.000    2080.000
     2000.001       600.000    2000.000      2000.001       600.000    2080.000
     2100.001       600.001    2000.000      2100.001       600.000    2080.000
     2200.001       600.000    2000.000      2200.001       600.000    2080.000
     2300.001       600.000    2000.000      2300.001       600.000    2080.000
     2400.001       600.000    2000.000      2400.001       600.000    2080.000
     2500.001       600.000    2000.000      2500.001       600.000    2080.000
     2600.001       600.000    2000.000      2600.001       600.000    2080.000
     2700.001       600.000    2000.000      2700.001       600.000    2080.000
     2800.001       600.000    2000.000      2800.001       600.000    2080.000
     2900.001       600.000    2000.000      2900.001       600.000    2080.000
     3000.001       600.000    2000.000      3000.001       600.000    2080.000
     3100.001       600.000    2000.000      3100.001       600.000    2080.000
     3200.001       600.000    2000.000      3200.001       600.000    2080.000
     3300.001       600.000    2000.000      3300.001       600.000    2080.000
     3400.001       600.000    2000.000      3400.001       600.000    2080.000
     3500.001       600.000    2000.000      3500.001       600.000    2080.000
     3600.001       600.000    2000.000      3600.001       600.000    2080.000
        0.000       700.000    2000.000         0.000       700.000    2080.000
      100.000       700.000    2000.000       100.000       700.000    2080.000
      200.000       700.000    2000.000       200.000       700.000    2080.000
      300.000       700.000    2000.000       300.000       700.000    2080.000
      400.000       700.000    2000.000       400.000       700.000    2080.000
      500.001       700.001    2000.000       500.001       700.000    2080.000
      600.000       700.001    2000.000       600.000       700.000    2080.000
      700.001       700.000    2000.000       700.001       700.000    2080.000
      800.001       700.001    2000.000       800.001       700.000    2080.000
      900.001       700.000    2000.000       900.001       700.000    2080.000
     1000.001       700.001    2000.000      1000.001       700.000    2080.000
     1100.001       700.000    2000.000      1100.001       700.000    2080.000
     1200.001       700.000    2000.000      1200.001       700.000    2080.000
     1300.001       700.000    2000.000      1300.001       700.000    2080.000
     1400.001       700.000    2000.000      1400.001       700.000    2080.000
     1500.001       700.000    2000.000      1500.001       700.000    2080.000
     1600.001       700.000    2000.000      1600.001       700.000    2080.000
     1700.001       700.000    2000.000      1700.001       700.000    2080.000
     1800.001       700.000    2000.000      1800.001       700.000    2080.000
     1900.001       700.000    2000.000      1900.001       700.000    2080.000
     2000.001       700.000    2000.000      2000.001       700.000    2080.000
     2100.001       700.000    2000.000      2100.001       700.000    2080.000
     2200.001       700.000    2000.000      2200.001       700.000    2080.000
     2300.001       700.000    2000.000      2300.001       700.000    2080.000
     2400.001       700.000    2000.000      2400.001       700.000    2080.000
     2500.001       700.000    2000.000      2500.001       700.000    2080.000
     2600.001       700.000    2000.000      2600.001       700.000    2080.000
     2700.001       700.000    2000.000      2700.001       700.000    2080.000
     2800.001       700.000    2000.000      2800.001       700.000    2080.000
     2900.001       700.000    2000.000      2900.001       700.000    2080.000
     3000.001       700.000    2000.000      3000.001       700.000    2080.000
     3100.001       700.001    2000.000      3100.001       700.000    2080.000
     3200.001       700.000    2000.000      3200.001       700.000    2080.000
     3300.001       700.000    2000.000      3300.001       700.000    2080.000
     3400.001       700.001    2000.000      3400.001       700.000    2080.000
     3500.001       700.000    2000.000      3500.001       700.000    2080.000
     3600.001       700.000    2000.000      3600.001       700.000    2080.000
        0.000       800.000    2000.000         0.000       800.000    2080.000
      100.000       800.000    2000.000       100.000       800.000    2080.000
      200.000       800.000    2000.000       200.000       800.000    2080.000
      300.000       800.000    2000.000       300.000       800.000    2080.000
      400.000       800.000    2000.000       400.000       800.000    2080.000
      500.001       800.000    2000.000       500.001       800.000    2080.000
      600.000       800.000    2000.000       600.000       800.000    2080.000
      700.001       800.000    2000.000       700.001       800.000    2080.000
      800.001       800.000    2000.000       800.001       800.000    2080.000
      900.001       800.000    2000.000       900.001       800.000    2080.000
     1000.001       800.000    2000.000      1000.001       800.000    2080.000
     1100.001       800.000    2000.000      1100.001       800.000    2080.000
     1200.001       800.000    2000.000      1200.001       800.000    2080.000
     1300.001       800.000    2000.000      1300.001       800.000    2080.000
     1400.001       800.000    2000.000      1400.001       800.000    2080.000
     1500.001       800.000    2000.000      1500.001       800.000    2080.000
     1600.001       800.000    2000.000      1600.001       800.000    2080.000
     1700.001       800.000    2000.000      1700.001       800.000    2080.000
     1800.001       800.000    2000.000      1800.001       800.000    2080.000
     1900.001       800.000    2000.000      1900.001       800.000    2080.000
     2000.001       800.000    2000.000      2000.001       800.000    2080.000
     2100.001       800.000    2000.000      2100.001       800.000    2080.000
     2200.001       800.000    2000.000      2200.001       800.000    2080.000
     2300.001       800.000    2000.000      2300.001       800.000    2080.000
     2400.001       800.000    2000.000      2400.001       800.000    2080.000
     2500.001       800.000    2000.000      2500.001       800.000    2080.000
     2600.001       800.000    2000.000      2600.001       800.000    2080.000
     2700.001       800.000    2000.000      2700.001       800.000    2080.000
     2800.001       800.000    2000.000      2800.001       800.000    2080.000
     2900.001       800.000    2000.000      2900.001       800.000    2080.000
     3000.001       800.000    2000.000      3000.001       800.000    2080.000
     3100.001       800.000    2000.000      3100.001       800.000    2080.000
     3200.001       800.000    2000.000      3200.001       800.000    2080.000
     3300.001       800.000    2000.001      3300.001       800.000    2080.000
     3400.001       800.000    2000.008      3400.001       800.000    2080.000
     3500.001       800.000    2000.009      3500.001       800.000    2080.000
     3600.001       800.000    2000.010      3600.001       800.000    2080.000
        0.000       900.000    2000.000         0.000       900.000    2080.000
      100.000       900.000    2000.000       100.000       900.000    2080.000
      200.000       900.001    2000.000       200.000       900.000    2080.000
      300.000       900.000    2000.000       300.000       900.000    2080.000
      400.000       900.000    2000.000       400.000       900.000    2080.000
      500.001       900.000    2000.000       500.001       900.000    2080.000
      600.000       900.000    2000.000       600.000       900.000    2080.000
      700.001       900.000    2000.000       700.001       900.000    2080.000
      800.001       900.001    2000.000       800.001       900.000    2080.000
      900.001       900.000    2000.000       900.001       900.000    2080.000
     1000.001       900.000    2000.000      1000.001       900.000    2080.000
     1100.001       900.000    2000.000      1100.001       900.000    2080.000
     1200.001       900.000    2000.000      1200.001       900.000    2080.000
     1300.001       900.000    2000.000      1300.001       900.000    2080.000
     1400.001       900.000    2000.000      1400.001       900.000    2080.000
     1500.001       900.000    2000.000      1500.001       900.000    2080.000
     1600.001       900.000    2000.000      1600.001       900.000    2080.000
     1700.001       900.000    2000.000      1700.001       900.000    2080.000
     1800.001       900.000    2000.000      1800.001       900.000    2080.000
     1900.001       900.001    2000.000      1900.001       900.000    2080.000
     2000.002       900.000    2000.000      2000.001       900.000    2080.000
     2100.001       900.000    2000.000      2100.001       900.000    2080.000
     2200.001       900.000    2000.000      2200.001       900.000    2080.000
     2300.001       900.000    2000.000      2300.001       900.000    2080.000
     2400.001       900.000    2000.000      2400.001       900.000    2080.000
     2500.001       900.000    2000.000      2500.001       900.000    2080.000
     2600.001       900.000    2000.000      2600.001       900.000    2080.000
     2700.001       900.000    2000.000      2700.001       900.000    2080.000
     2800.001       900.001    2000.000      2800.001       900.000    2080.000
     2900.001       900.000    2000.000      2900.001       900.000    2080.000
     3000.001       900.000    2000.001      3000.001       900.000    2080.000
     3100.001       900.000    2000.007      3100.001       900.000    2080.000
     3200.001       900.000    2000.008      3200.001       900.000    2080.000
     3300.001       900.000    2000.001      3300.001       900.000    2080.000
     3400.001       900.000    2000.006      3400.001       900.000    2080.000